LAMMPS data file for Network

1939 atoms
7776 bonds
56686 angles
30000 extra bond per atom
1000 extra special per atom

4 atom types
2 bond types
1 angle types

-30 800 xlo xhi
-30 900 ylo yhi
-20 180 zlo zhi

Masses

1 1
2 1
3 0.2
4 0.2

Atoms

1   1   1   28.4699   51.7682   2.00601
2   1   1   28.7472   50.9204   2.12791
3   1   1   28.9075   49.8317   2.32447
4   1   1   28.4972   52.7268   1.67082
5   1   1   28.9234   47.1522   3.12264
6   1   1   29.06   48.259   2.85198
7   1   1   29.1364   46.1129   3.28928
8   1   1   29.1378   52.0303   1.82476
9   1   1   29.1125   51.2625   1.94323
10   1   1   29.0902   50.3489   2.11495
11   1   1   29.3675   49.1495   2.48203
12   1   1   29.4461   53.0595   1.60187
13   1   1   29.5316   47.5505   2.87253
14   1   1   29.3429   46.6064   3.1689
15   1   1   29.8745   48.4428   2.64985
16   1   1   29.4902   55.2143   1.02469
17   1   1   29.5024   45.6763   3.34844
18   1   1   29.5799   44.0471   3.56129
19   1   1   29.668   45.0788   3.37457
20   1   1   28.8019   55.6821   1.12748
21   1   1   29.7162   54.1476   1.25555
22   1   1   29.799   43.1979   3.60304
23   1   1   29.9399   52.0589   1.79275
24   1   1   29.8216   50.993   1.98322
25   1   1   29.8425   49.8426   2.23839
26   1   1   30.0781   52.7447   1.63634
27   1   1   30.2938   53.6106   1.37759
28   1   1   30.4796   48.8117   2.37954
29   1   1   30.3954   47.8369   2.65114
30   1   1   29.9054   54.908   1.08165
31   1   1   30.1065   45.9182   3.14843
32   1   1   30.2543   44.0188   3.41883
33   1   1   30.212   44.7736   3.34514
34   1   1   30.2799   46.966   2.9148
35   1   1   30.6636   42.8171   3.35545
36   1   1   30.6526   54.2947   1.14984
37   1   1   30.8251   52.285   1.74083
38   1   1   30.336   51.379   1.884
39   1   1   30.5907   50.5185   2.03837
40   1   1   30.9754   49.629   2.12667
41   1   1   30.8593   53.3414   1.4594
42   1   1   31.0242   48.4291   2.3582
43   1   1   30.6519   55.2513   0.919153
44   1   1   31.0907   46.0793   2.93557
45   1   1   31.0156   44.1668   3.20199
46   1   1   30.9861   45.2103   3.08465
47   1   1   31.1515   47.8801   2.54633
48   1   1   31.031   46.898   2.80102
49   1   1   30.921   56.2509   0.545167
50   1   1   31.1832   43.4397   3.21329
51   1   1   31.3383   42.254   3.25252
52   1   1   31.103   54.3833   1.08076
53   1   1   31.3857   52.6549   1.59158
54   1   1   31.286   51.3416   1.82765
55   1   1   31.1095   50.6115   1.95523
56   1   1   31.7582   41.1176   3.35517
57   1   1   31.4982   50.2251   1.99066
58   1   1   31.605   49.1217   2.14543
59   1   1   31.6901   57.1418   0.108395
60   1   1   31.5537   53.5724   1.29002
61   1   1   31.6979   43.2042   3.09417
62   1   1   31.8049   48.1905   2.30315
63   1   1   31.4862   55.7946   0.612085
64   1   1   31.7209   44.3193   3.02599
65   1   1   31.4547   54.9546   0.872469
66   1   1   31.9503   45.437   2.85547
67   1   1   31.9934   47.4953   2.45721
68   1   1   31.9914   46.4655   2.68913
69   1   1   31.7346   56.6296   0.282927
70   1   1   31.814   60.4391   -0.388398
71   1   1   32.2451   59.4586   -0.148756
72   1   1   32.0878   58.2276   -0.0417022
73   1   1   31.9377   52.0249   1.63788
74   1   1   32.149   50.9748   1.73249
75   1   1   32.2178   42.0196   3.0885
76   1   1   31.9178   41.5775   3.12617
77   1   1   32.0694   49.8573   1.9564
78   1   1   32.2018   43.486   2.89185
79   1   1   32.1238   57.5313   0.101826
80   1   1   32.2215   53.7556   1.07057
81   1   1   32.3199   48.2492   2.26057
82   1   1   32.622   58.5346   0.0191798
83   1   1   32.0789   55.2168   0.753771
84   1   1   32.5032   45.7194   2.67923
85   1   1   32.5519   44.8835   2.73728
86   1   1   32.5627   47.3857   2.40883
87   1   1   32.8434   46.6232   2.51624
88   1   1   32.4064   56.2096   0.452981
89   1   1   32.6378   43.0676   2.88106
90   1   1   32.2705   61.2822   -0.545368
91   1   1   32.5626   60.3753   -0.308321
92   1   1   32.3519   55.5382   0.602
93   1   1   32.5859   54.61   0.85139
94   1   1   32.672   52.7106   1.34721
95   1   1   33.0054   59.4687   -0.134745
96   1   1   32.7107   51.5602   1.56844
97   1   1   32.7952   50.5466   1.70492
98   1   1   32.8799   41.6095   2.99991
99   1   1   33.0529   40.0894   3.20531
100   1   1   32.6265   49.6572   1.88028
101   1   1   32.8275   42.6303   2.86574
102   1   1   32.8526   44.1267   2.73384
103   1   1   32.82   57.4929   0.167532
104   1   1   31.8053   62.2116   -0.760599
105   1   1   33.1517   50.083   1.76395
106   1   1   33.1254   58.3581   0.0168516
107   1   1   33.1426   49.0673   1.98727
108   1   1   33.1553   47.8341   2.2225
109   1   1   33.2043   45.156   2.62318
110   1   1   33.1573   59.1637   -0.0672098
111   1   1   33.1177   55.0265   0.695905
112   1   1   33.5799   46.8342   2.32436
113   1   1   33.2783   45.9649   2.53034
114   1   1   33.5468   44.3687   2.56088
115   1   1   32.9454   55.8712   0.509382
116   1   1   33.3886   43.4291   2.68109
117   1   1   32.7457   61.8376   -0.555838
118   1   1   33.4375   60.2055   -0.255025
119   1   1   33.0073   53.6064   1.07021
120   1   1   33.5978   51.8406   1.3594
121   1   1   33.5154   50.9265   1.54841
122   1   1   33.6587   41.5599   2.76129
123   1   1   33.571   40.7359   2.8748
124   1   1   33.6071   49.3879   1.84835
125   1   1   33.3968   42.4995   2.77896
126   1   1   33.1588   54.0886   0.931945
127   1   1   33.9046   39.9894   2.73095
128   1   1   33.4468   57.4879   0.144033
129   1   1   33.7628   59.6895   -0.148152
130   1   1   33.6698   50.1155   1.70896
131   1   1   33.7322   58.3014   0.025383
132   1   1   33.8876   48.247   2.06301
133   1   1   33.4752   55.8258   0.495285
134   1   1   33.8261   45.2384   2.52587
135   1   1   34.0242   58.9522   -0.0798154
136   1   1   33.8044   54.7883   0.71306
137   1   1   34.1371   47.2603   2.17335
138   1   1   33.9139   46.1697   2.33956
139   1   1   33.9967   44.3591   2.49926
140   1   1   33.4683   61.1966   -0.499054
141   1   1   33.8346   56.7238   0.333117
142   1   1   34.0151   43.383   2.57315
143   1   1   34.1681   60.7165   -0.376724
144   1   1   33.7539   53.2156   1.03756
145   1   1   34.0705   48.6868   1.90321
146   1   1   34.4026   52.379   1.15553
147   1   1   34.3094   51.2179   1.38978
148   1   1   34.3403   41.1652   2.53228
149   1   1   33.7374   61.8759   -0.61757
150   1   1   34.0806   49.503   1.74462
151   1   1   34.2146   42.3883   2.57793
152   1   1   33.9363   54.0748   0.884852
153   1   1   34.4166   40.1902   2.55304
154   1   1   34.1906   57.8897   0.0724248
155   1   1   34.3226   50.1974   1.56827
156   1   1   34.4464   59.8315   -0.223533
157   1   1   34.714   39.5868   2.45983
158   1   1   34.733   48.1273   1.94556
159   1   1   34.3844   55.346   0.549522
160   1   1   34.616   45.4847   2.27175
161   1   1   34.5704   58.8827   -0.0713936
162   1   1   34.7655   46.6383   2.1282
163   1   1   34.7343   44.0191   2.33951
164   1   1   34.5505   57.1347   0.190517
165   1   1   34.5488   56.2365   0.427227
166   1   1   34.486   43.3968   2.46425
167   1   1   34.7925   51.7789   1.26735
168   1   1   34.9753   40.9416   2.31484
169   1   1   34.6165   61.7222   -0.593193
170   1   1   34.8522   58.1869   0.0267365
171   1   1   34.7109   49.0717   1.7183
172   1   1   34.9275   41.8248   2.35162
173   1   1   34.733   53.2979   0.915236
174   1   1   34.7565   54.2412   0.765602
175   1   1   34.9732   60.4443   -0.334187
176   1   1   34.7887   63.8592   -1.07097
177   1   1   34.7932   61.2519   -0.506425
178   1   1   35.0129   50.8299   1.39678
179   1   1   35.0014   49.7426   1.6039
180   1   1   35.1023   59.6042   -0.209906
181   1   1   34.9897   39.9881   2.31282
182   1   1   35.1279   39.2175   2.22503
183   1   1   35.1469   62.7865   -0.871784
184   1   1   35.3988   47.6487   1.86656
185   1   1   35.0359   47.2097   1.99368
186   1   1   34.8755   54.7074   0.689985
187   1   1   35.1976   52.4645   1.09397
188   1   1   35.3789   45.512   2.04054
189   1   1   35.0954   44.6068   2.19641
190   1   1   35.0847   46.2679   2.028
191   1   1   35.5177   43.8171   2.13332
192   1   1   35.3086   57.3821   0.138479
193   1   1   35.1351   56.7378   0.307217
194   1   1   35.1437   55.816   0.432745
195   1   1   35.3499   42.8165   2.19978
196   1   1   34.9056   64.9751   -1.14465
197   1   1   35.5429   63.5158   -1.06042
198   1   1   35.3082   51.4013   1.28402
199   1   1   35.5658   40.4016   2.15087
200   1   1   35.4036   62.0255   -0.65345
201   1   1   35.5184   58.9189   -0.0981697
202   1   1   35.2868   48.6607   1.70181
203   1   1   35.4986   41.8967   2.20873
204   1   1   35.5435   53.322   0.909601
205   1   1   35.6108   64.4717   -1.20691
206   1   1   35.5502   53.9655   0.794093
207   1   1   35.5823   60.6344   -0.445456
208   1   1   35.6042   50.4896   1.3617
209   1   1   35.6875   59.9265   -0.254311
210   1   1   35.9405   39.5838   2.01612
211   1   1   35.7445   48.0284   1.77774
212   1   1   35.8094   47.0453   1.84724
213   1   1   35.5913   54.8999   0.657093
214   1   1   36.0126   52.9436   0.963825
215   1   1   35.8921   51.1402   1.27943
216   1   1   36.1429   44.9458   1.94399
217   1   1   35.7887   44.4806   2.04178
218   1   1   36.0481   45.9995   1.88265
219   1   1   35.7742   43.9443   2.06306
220   1   1   35.8823   41.2116   2.12713
221   1   1   35.9441   58.1929   0.0447327
222   1   1   35.7485   56.4702   0.313725
223   1   1   36.1183   43.0147   2.04181
224   1   1   36.1411   59.1928   -0.137624
225   1   1   36.0403   62.7984   -0.809658
226   1   1   36.0752   40.1529   1.96953
227   1   1   36.0502   62.3764   -0.788924
228   1   1   35.9983   61.4198   -0.563541
229   1   1   36.5282   41.9559   1.94329
230   1   1   36.2232   64.9076   -1.22123
231   1   1   35.8908   49.1442   1.56671
232   1   1   35.9486   54.1855   0.750235
233   1   1   36.1696   49.8842   1.39491
234   1   1   36.4258   60.5569   -0.367433
235   1   1   36.4701   39.0841   1.78306
236   1   1   36.366   57.2101   0.226949
237   1   1   36.5369   48.0686   1.54905
238   1   1   36.581   47.5285   1.62389
239   1   1   36.2486   55.5842   0.421773
240   1   1   36.5071   53.3562   0.845591
241   1   1   36.3881   52.5375   0.995069
242   1   1   36.524   51.343   1.17256
243   1   1   36.5255   45.2717   1.84124
244   1   1   36.7947   37.9971   1.75117
245   1   1   36.8228   46.5871   1.59436
246   1   1   36.5755   43.7146   1.85369
247   1   1   36.6285   64.4455   -1.17375
248   1   1   36.4114   54.8363   0.56439
249   1   1   36.8179   42.6874   1.88116
250   1   1   36.7152   63.6979   -0.979794
251   1   1   36.5875   58.8123   -0.00553759
252   1   1   36.5907   50.4899   1.28731
253   1   1   36.7957   62.9051   -0.826841
254   1   1   36.9764   45.6331   1.7257
255   1   1   36.731   39.9062   1.82117
256   1   1   36.508   62.0365   -0.704737
257   1   1   36.9969   52.2567   1.02428
258   1   1   36.8442   41.67   1.86036
259   1   1   36.8755   40.8144   1.81743
260   1   1   36.8088   56.3033   0.314129
261   1   1   36.7422   44.5061   1.83719
262   1   1   36.8073   59.7928   -0.217872
263   1   1   37.0302   60.9548   -0.385239
264   1   1   36.7534   49.623   1.31922
265   1   1   37.0203   57.9493   0.125209
266   1   1   37.0262   39.0097   1.66285
267   1   1   37.0218   62.7795   -0.77571
268   1   1   37.2029   59.1732   -0.0771595
269   1   1   37.3278   56.8205   0.254328
270   1   1   36.9533   48.6672   1.42287
271   1   1   37.2041   47.3502   1.43912
272   1   1   36.9269   54.046   0.709521
273   1   1   37.0849   52.9728   0.892899
274   1   1   37.0162   51.3332   1.17166
275   1   1   37.021   38.1871   1.63182
276   1   1   37.0864   37.0409   1.62669
277   1   1   37.4814   46.5164   1.52387
278   1   1   37.3545   45.1536   1.68879
279   1   1   37.2689   43.5663   1.71258
280   1   1   37.3675   64.5425   -1.09094
281   1   1   37.9225   65.9711   -1.24132
282   1   1   36.9758   55.1601   0.51883
283   1   1   37.4554   42.4661   1.73719
284   1   1   37.2981   50.4993   1.16369
285   1   1   37.5738   63.6842   -0.926992
286   1   1   37.6638   45.7896   1.55212
287   1   1   37.4066   39.8026   1.62233
288   1   1   37.3378   52.0391   1.01977
289   1   1   37.3393   41.6996   1.77636
290   1   1   37.5502   40.6747   1.63575
291   1   1   37.2334   55.7562   0.407521
292   1   1   37.5614   48.0563   1.37847
293   1   1   37.6471   58.586   0.0409961
294   1   1   37.3969   57.5098   0.174142
295   1   1   37.7874   44.354   1.60805
296   1   1   37.3116   61.8317   -0.567251
297   1   1   38.1197   66.4993   -1.33921
298   1   1   37.5698   60.1309   -0.205716
299   1   1   37.4962   49.5866   1.23887
300   1   1   38.1631   67.763   -1.53179
301   1   1   37.8392   62.7222   -0.720646
302   1   1   37.8007   59.5925   -0.140491
303   1   1   37.8302   56.6348   0.337879
304   1   1   37.9337   48.6747   1.24803
305   1   1   37.7025   53.7625   0.742095
306   1   1   37.9142   51.4599   1.09399
307   1   1   37.8232   38.7148   1.39618
308   1   1   37.9375   52.7771   0.854976
309   1   1   38.1429   43.2956   1.44591
310   1   1   37.714   38.0575   1.44626
311   1   1   37.5594   37.5834   1.45137
312   1   1   38.2144   65.2286   -1.08711
313   1   1   37.9642   54.8834   0.623377
314   1   1   38.0205   47.2538   1.35878
315   1   1   38.1041   63.0032   -0.730482
316   1   1   38.2332   64.1484   -0.98977
317   1   1   38.1408   45.4681   1.50283
318   1   1   38.1292   39.7055   1.33615
319   1   1   38.2712   67.0612   -1.40632
320   1   1   38.2494   42.4268   1.52152
321   1   1   37.91   41.6469   1.60837
322   1   1   38.0173   40.8375   1.4534
323   1   1   38.1447   58.0191   0.129388
324   1   1   38.4085   45.0223   1.43178
325   1   1   38.1034   64.6784   -1.04745
326   1   1   38.676   66.0369   -1.16399
327   1   1   38.1714   60.8324   -0.309265
328   1   1   38.193   56.3276   0.369498
329   1   1   38.3293   50.0493   1.10163
330   1   1   38.2938   62.0063   -0.519481
331   1   1   38.3747   57.1193   0.264406
332   1   1   38.5005   46.4488   1.39978
333   1   1   38.3752   61.4976   -0.414459
334   1   1   38.3353   59.245   -0.0560791
335   1   1   38.4006   48.9672   1.14281
336   1   1   38.4632   47.8288   1.25211
337   1   1   38.6137   54.1024   0.740718
338   1   1   38.5319   52.0897   0.926387
339   1   1   38.5346   50.8147   0.994865
340   1   1   38.5578   53.1832   0.796561
341   1   1   38.6353   44.0278   1.31101
342   1   1   38.8757   43.0411   1.26571
343   1   1   38.48   38.1139   1.20755
344   1   1   39.0257   65.2393   -1.01234
345   1   1   38.6765   55.4779   0.51184
346   1   1   38.5764   54.4578   0.674848
347   1   1   38.6144   63.4585   -0.743034
348   1   1   38.8236   68.246   -1.59573
349   1   1   38.9663   45.7766   1.32188
350   1   1   39.0072   39.8156   1.10386
351   1   1   38.9784   46.9815   1.3176
352   1   1   38.9533   41.9937   1.29958
353   1   1   38.72   41.0677   1.30531
354   1   1   39.1013   40.3731   1.12431
355   1   1   38.8027   62.4982   -0.597876
356   1   1   38.9235   58.2515   0.159834
357   1   1   38.8749   44.7356   1.28056
358   1   1   39.0861   64.3207   -0.865057
359   1   1   39.0457   57.8581   0.217079
360   1   1   39.0902   67.5522   -1.38999
361   1   1   38.74   60.3381   -0.210278
362   1   1   38.8894   56.1979   0.437043
363   1   1   39.1816   49.8796   1.04624
364   1   1   38.7525   57.08   0.325688
365   1   1   39.0028   61.366   -0.3661
366   1   1   38.8741   59.3536   -0.0436404
367   1   1   39.1133   48.3738   1.10704
368   1   1   38.7782   38.9002   1.11818
369   1   1   39.2435   53.843   0.77092
370   1   1   39.0355   51.4705   0.917839
371   1   1   38.9561   38.2123   1.01177
372   1   1   39.2495   52.9148   0.846817
373   1   1   39.2897   43.5196   1.10553
374   1   1   39.6738   65.7826   -0.915114
375   1   1   39.127   54.9082   0.651746
376   1   1   39.4376   50.5696   0.97679
377   1   1   39.3534   69.1743   -1.7269
378   1   1   39.4451   63.9223   -0.741388
379   1   1   39.3219   60.8902   -0.285102
380   1   1   39.4437   46.5244   1.25809
381   1   1   39.5566   44.027   1.06773
382   1   1   39.2553   45.6578   1.26256
383   1   1   39.0811   39.5881   1.02878
384   1   1   39.6493   66.6546   -1.11198
385   1   1   39.5879   47.5726   1.15551
386   1   1   39.4581   42.4753   1.09828
387   1   1   39.5871   41.4268   1.03386
388   1   1   39.4946   49.0521   1.0941
389   1   1   39.6232   52.2106   0.889609
390   1   1   39.578   40.5074   0.983889
391   1   1   39.4636   68.348   -1.49292
392   1   1   39.5945   63.1544   -0.580964
393   1   1   39.4621   62.2238   -0.520301
394   1   1   39.4202   58.8824   0.0751714
395   1   1   39.6818   45.1194   1.12889
396   1   1   39.8856   64.884   -0.719345
397   1   1   39.6112   38.3246   0.801593
398   1   1   39.818   67.6362   -1.29468
399   1   1   39.3038   59.8197   -0.0954651
400   1   1   39.5462   55.5372   0.608447
401   1   1   39.8792   49.6478   0.956119
402   1   1   39.3791   57.2908   0.368467
403   1   1   39.7677   59.0163   0.101213
404   1   1   39.9441   48.4639   1.04744
405   1   1   39.6279   53.8932   0.783763
406   1   1   39.5735   38.7689   0.833066
407   1   1   40.1229   65.8583   -0.846592
408   1   1   39.9566   61.457   -0.294537
409   1   1   40.0075   54.7616   0.748676
410   1   1   40.0645   50.4495   0.914835
411   1   1   39.9436   60.5907   -0.125913
412   1   1   39.8285   58.1182   0.268129
413   1   1   39.7973   56.4639   0.528028
414   1   1   40.2699   43.8555   0.906733
415   1   1   40.024   38.2764   0.652262
416   1   1   40.1575   46.9858   1.16572
417   1   1   40.1536   45.9931   1.08031
418   1   1   40.0445   40.0561   0.839313
419   1   1   40.2938   66.7165   -1.00508
420   1   1   39.9836   53.1162   0.825804
421   1   1   40.1599   51.3408   0.915322
422   1   1   40.1122   47.7986   1.07886
423   1   1   40.1066   42.9681   0.979396
424   1   1   39.9895   41.8908   0.995949
425   1   1   40.3272   41.0858   0.849197
426   1   1   40.3107   52.3712   0.845422
427   1   1   40.3104   40.7104   0.838537
428   1   1   40.1259   68.4877   -1.36523
429   1   1   40.342   63.289   -0.459492
430   1   1   40.0823   62.3972   -0.441294
431   1   1   40.2977   45.0403   0.963537
432   1   1   40.6185   65.1313   -0.68928
433   1   1   40.2684   64.0852   -0.609624
434   1   1   40.3678   58.5837   0.223399
435   1   1   40.2806   67.6463   -1.19669
436   1   1   40.3845   55.1273   0.735054
437   1   1   40.2009   49.4731   0.982812
438   1   1   40.5729   44.3941   0.918868
439   1   1   40.3475   55.6783   0.641748
440   1   1   40.3086   59.7064   0.065534
441   1   1   40.3945   48.6609   0.993471
442   1   1   40.5643   62.8216   -0.416149
443   1   1   40.7072   54.0539   0.834564
444   1   1   40.452   38.2311   0.522136
445   1   1   40.5405   57.3745   0.490065
446   1   1   40.7168   38.6796   0.491775
447   1   1   40.7791   67.1046   -0.982654
448   1   1   40.3565   61.3384   -0.18253
449   1   1   40.5746   50.4547   0.94038
450   1   1   40.5452   60.6967   -0.0475439
451   1   1   40.8972   38.1173   0.393587
452   1   1   40.9502   46.8306   0.997228
453   1   1   40.8804   45.7724   0.926429
454   1   1   40.729   40.5005   0.669873
455   1   1   41.0165   66.064   -0.809998
456   1   1   40.7987   53.2799   0.841022
457   1   1   40.8913   51.3552   0.880744
458   1   1   40.7038   47.6977   0.977003
459   1   1   41.0324   43.5956   0.725451
460   1   1   40.7012   41.9133   0.779538
461   1   1   40.5908   52.1456   0.852366
462   1   1   41.0639   41.2469   0.643473
463   1   1   41.1509   40.7527   0.608629
464   1   1   41.0722   64.7248   -0.590136
465   1   1   41.0363   63.9802   -0.510399
466   1   1   41.008   62.2424   -0.306602
467   1   1   40.9401   58.146   0.359068
468   1   1   41.3478   68.0136   -1.08824
469   1   1   40.9588   54.9494   0.788717
470   1   1   41.1766   39.9207   0.508325
471   1   1   41.1737   44.7395   0.794074
472   1   1   41.4177   44.0729   0.710512
473   1   1   40.9603   56.1481   0.597592
474   1   1   41.1402   60.1056   0.0749761
475   1   1   41.0245   59.1868   0.229734
476   1   1   41.2323   49.4895   0.887647
477   1   1   41.0938   63.1609   -0.400591
478   1   1   41.4059   53.9656   0.796808
479   1   1   41.4146   57.1012   0.514506
480   1   1   41.3773   38.2139   0.217142
481   1   1   41.3409   67.1473   -0.929113
482   1   1   41.605   50.4198   0.912291
483   1   1   41.1507   61.2762   -0.0622925
484   1   1   41.5524   38.0577   0.104723
485   1   1   41.3382   46.8063   0.936284
486   1   1   41.4409   46.1217   0.872287
487   1   1   41.5918   66.4619   -0.80733
488   1   1   41.6872   65.5794   -0.679355
489   1   1   41.3296   51.3467   0.91034
490   1   1   41.5794   47.9122   0.870752
491   1   1   41.8096   42.9261   0.601957
492   1   1   41.0671   60.6217   -0.00381568
493   1   1   41.6827   53.1704   0.882616
494   1   1   41.2927   52.3492   0.87378
495   1   1   41.8264   41.4335   0.52425
496   1   1   41.5121   40.608   0.478139
497   1   1   41.829   64.6993   -0.496202
498   1   1   41.5844   62.2554   -0.213975
499   1   1   41.6221   57.7063   0.431958
500   1   1   42.0043   68.0687   -1.01989
501   1   1   41.7717   54.7994   0.783899
502   1   1   41.7731   39.9588   0.342142
503   1   1   41.8493   45.2173   0.746401
504   1   1   41.7393   44.3265   0.673332
505   1   1   41.9774   43.6371   0.561956
506   1   1   41.9886   56.2836   0.551861
507   1   1   41.838   55.4689   0.711874
508   1   1   42.1894   68.9484   -1.07448
509   1   1   41.6351   60.1976   0.121966
510   1   1   41.6035   59.2663   0.286579
511   1   1   41.9931   49.2021   0.839242
512   1   1   41.9308   48.2884   0.884555
513   1   1   41.9483   67.4199   -0.910473
514   1   1   41.8337   63.8832   -0.378275
515   1   1   41.8816   53.8091   0.816475
516   1   1   41.9201   39.1155   0.200684
517   1   1   41.7496   46.2034   0.831154
518   1   1   42.0546   37.8925   0.00468014
519   1   1   42.2914   49.9357   0.875422
520   1   1   41.9273   61.3102   0.00570813
521   1   1   42.3278   38.2146   -0.0683359
522   1   1   42.1709   66.5428   -0.740003
523   1   1   42.1654   65.7307   -0.612075
524   1   1   42.0805   51.0753   0.914141
525   1   1   42.1682   50.6915   0.854882
526   1   1   42.0524   47.6365   0.832596
527   1   1   42.2979   42.3483   0.476155
528   1   1   42.2885   53.1067   0.870611
529   1   1   41.8523   47.0158   0.839129
530   1   1   42.1246   52.1751   0.923322
531   1   1   42.2472   41.1435   0.362626
532   1   1   42.0874   62.9472   -0.271307
533   1   1   42.6554   37.8921   -0.269261
534   1   1   42.1145   64.9406   -0.48206
535   1   1   42.1902   62.2784   -0.120038
536   1   1   42.195   57.62   0.424065
537   1   1   42.4646   68.2837   -0.929796
538   1   1   42.3282   60.74   0.104687
539   1   1   42.5721   54.7294   0.77972
540   1   1   42.3564   40.037   0.168328
541   1   1   42.3873   45.2932   0.63307
542   1   1   42.5305   44.3595   0.562862
543   1   1   42.5411   43.4357   0.493603
544   1   1   42.4565   57.0046   0.493823
545   1   1   42.4406   55.6714   0.670117
546   1   1   42.2459   45.9767   0.692829
547   1   1   42.6932   69.0429   -1.00499
548   1   1   42.3226   59.7335   0.279504
549   1   1   42.0242   58.6691   0.383729
550   1   1   42.2769   48.783   0.808284
551   1   1   42.5315   67.385   -0.778588
552   1   1   42.6003   63.2498   -0.197536
553   1   1   42.6272   69.9706   -1.0473
554   1   1   42.7563   39.4595   -0.00264105
555   1   1   42.553   50.1327   0.850672
556   1   1   43.0327   38.7144   -0.24232
557   1   1   43.1594   37.6393   -0.461439
558   1   1   43.0131   66.5497   -0.603435
559   1   1   42.764   65.7345   -0.560635
560   1   1   43.0667   50.7502   0.917854
561   1   1   42.6238   47.7271   0.774315
562   1   1   42.898   42.6175   0.376537
563   1   1   42.8918   53.9249   0.854792
564   1   1   42.6934   53.0182   0.886396
565   1   1   43.0113   70.5689   -1.11672
566   1   1   43.1393   51.8736   0.926644
567   1   1   42.815   46.9863   0.724371
568   1   1   42.8842   41.6404   0.361917
569   1   1   43.167   40.5932   0.10698
570   1   1   43.2074   38.0531   -0.372179
571   1   1   42.9513   64.8796   -0.362714
572   1   1   42.8186   62.4069   -0.0487562
573   1   1   42.7102   57.9495   0.418766
574   1   1   43.0496   68.1042   -0.79491
575   1   1   42.9191   61.2721   0.0589584
576   1   1   42.9257   55.0755   0.712394
577   1   1   43.1119   56.2741   0.610064
578   1   1   42.8903   45.1731   0.561412
579   1   1   43.3249   44.3081   0.445867
580   1   1   43.0375   43.4474   0.467247
581   1   1   43.0826   57.2484   0.491048
582   1   1   43.1927   69.396   -0.940115
583   1   1   43.1724   60.2097   0.235537
584   1   1   43.1367   59.0724   0.396978
585   1   1   42.8545   49.364   0.799288
586   1   1   42.9869   63.5462   -0.190961
587   1   1   43.5289   61.9236   0.129268
588   1   1   43.0669   48.576   0.765659
589   1   1   43.504   39.739   -0.14537
590   1   1   43.3027   49.8945   0.850978
591   1   1   43.4539   45.7699   0.502309
592   1   1   43.7572   38.8282   -0.389583
593   1   1   43.5244   67.3748   -0.63197
594   1   1   43.4253   55.3685   0.692705
595   1   1   43.8038   37.5608   -0.643963
596   1   1   43.5991   66.3772   -0.490144
597   1   1   43.5717   50.937   0.889822
598   1   1   43.5473   47.7149   0.713397
599   1   1   43.5135   64.2298   -0.169748
600   1   1   43.2945   54.1589   0.83402
601   1   1   43.4565   53.104   0.862089
602   1   1   43.6616   70.3035   -0.911708
603   1   1   43.5453   52.3427   0.878792
604   1   1   43.9123   51.4647   0.87379
605   1   1   43.7039   46.8521   0.629585
606   1   1   43.4972   42.437   0.364565
607   1   1   43.5903   41.6926   0.212061
608   1   1   43.6939   41.0455   0.0420325
609   1   1   44.0764   38.2283   -0.581729
610   1   1   43.8123   65.3564   -0.280084
611   1   1   43.8331   62.801   0.0799094
612   1   1   43.5402   58.1424   0.468352
613   1   1   43.6521   57.3711   0.50734
614   1   1   43.7108   68.504   -0.724465
615   1   1   43.6854   60.9502   0.234449
616   1   1   43.9239   45.0586   0.400553
617   1   1   43.6087   44.1866   0.428525
618   1   1   43.5614   43.2401   0.363648
619   1   1   43.7028   69.5434   -0.82432
620   1   1   43.74   56.4681   0.579433
621   1   1   43.6315   59.8448   0.326021
622   1   1   43.6551   58.8971   0.392429
623   1   1   44.1412   69.3706   -0.778939
624   1   1   43.9793   63.5556   0.00493708
625   1   1   43.8467   61.9311   0.189381
626   1   1   43.8261   49.1205   0.784123
627   1   1   43.6851   54.6558   0.779471
628   1   1   44.2334   40.3291   -0.197972
629   1   1   44.1779   46.1945   0.515887
630   1   1   44.2837   39.2286   -0.400997
631   1   1   44.1825   67.4878   -0.526365
632   1   1   44.2491   37.2887   -0.83529
633   1   1   44.1473   66.5376   -0.376691
634   1   1   44.0654   55.6646   0.686343
635   1   1   44.1507   50.6184   0.868429
636   1   1   44.1642   48.3526   0.747331
637   1   1   44.0674   64.6411   -0.14316
638   1   1   44.1791   53.8029   0.859595
639   1   1   44.1436   52.2645   0.869399
640   1   1   44.1818   47.2196   0.624798
641   1   1   44.3735   42.4188   0.11041
642   1   1   44.4215   41.323   0.0144851
643   1   1   44.5618   40.4742   -0.22115
644   1   1   44.4031   38.1101   -0.699942
645   1   1   44.3784   65.6905   -0.263035
646   1   1   44.3504   62.788   0.169325
647   1   1   44.3568   58.1722   0.501574
648   1   1   44.0408   57.5471   0.509492
649   1   1   44.4908   68.1456   -0.528598
650   1   1   44.352   61.17   0.316551
651   1   1   44.4221   45.6109   0.396666
652   1   1   44.3436   44.5917   0.293223
653   1   1   44.5677   58.14   0.497095
654   1   1   44.6307   70.6127   -0.766893
655   1   1   44.2939   60.2452   0.384872
656   1   1   44.2483   59.1574   0.423304
657   1   1   44.6802   69.6609   -0.68579
658   1   1   44.4765   63.8489   0.0543859
659   1   1   44.4669   61.949   0.286816
660   1   1   44.5351   49.6644   0.794253
661   1   1   44.6952   48.9103   0.787368
662   1   1   45.3138   70.7067   -0.668413
663   1   1   44.5929   55.1647   0.748522
664   1   1   44.677   53.0535   0.817928
665   1   1   44.8681   43.1144   0.0814285
666   1   1   45.11   39.8193   -0.511999
667   1   1   45.0411   38.7825   -0.695514
668   1   1   44.6238   68.9045   -0.598831
669   1   1   44.8461   67.5731   -0.363218
670   1   1   44.9019   51.3399   0.805316
671   1   1   44.9435   37.5371   -1.00187
672   1   1   44.7898   66.6717   -0.271166
673   1   1   44.9105   63.0819   0.23237
674   1   1   44.7448   56.1102   0.631056
675   1   1   44.7363   50.5321   0.843028
676   1   1   44.682   47.9673   0.684913
677   1   1   44.7951   46.6909   0.558665
678   1   1   44.8523   64.8568   -0.0530271
679   1   1   44.9355   53.9052   0.835897
680   1   1   45.1028   42.0717   -0.0702596
681   1   1   44.9804   40.9092   -0.209332
682   1   1   45.2644   40.3455   -0.456484
683   1   1   45.3229   38.2866   -0.908688
684   1   1   44.9777   65.8609   -0.0933593
685   1   1   44.9079   57.3835   0.517822
686   1   1   44.9567   60.8635   0.426255
687   1   1   45.2525   45.9105   0.432459
688   1   1   44.9661   44.9393   0.260383
689   1   1   45.0958   58.084   0.482605
690   1   1   45.2682   52.2515   0.786257
691   1   1   45.0746   59.7855   0.479964
692   1   1   45.1538   58.7717   0.481413
693   1   1   45.294   71.3986   -0.818439
694   1   1   45.3126   69.9169   -0.547353
695   1   1   45.2571   68.08   -0.333934
696   1   1   45.2167   64.1372   0.166874
697   1   1   45.116   62.0528   0.382754
698   1   1   45.4755   49.7346   0.798936
699   1   1   45.2615   48.7529   0.730178