LAMMPS data file for Tree

1939 atoms
7937 bonds
60623 angles
30000 extra bond per atom
1000 extra special per atom

4 atom types
2 bond types
1 angle types

-30 800 xlo xhi
-30 900 ylo yhi
-20 180 zlo zhi

Masses

1 1
2 1
3 0.2
4 0.2

Atoms

1   1   1   5.574   40.715   0.0
2   1   1   6.045   40.533   0.0
3   1   1   6.516   40.305   0.0
4   1   1   6.987   40.215   0.0
5   1   1   7.458   40.078   0.0
6   1   1   7.929   40.079   0.0
7   1   1   8.4   39.988   0.0
8   1   1   8.871   39.943   0.0
9   1   1   9.342   39.807   0.0
10   1   1   9.813   39.716   0.0
11   1   1   10.284   39.625   0.0
12   1   1   10.755   39.489   0.0
13   1   1   11.226   39.398   0.0
14   1   1   11.737   39.194   0.0
15   1   1   12.09   39.605   0.0
16   1   1   12.09   38.68   0.0
17   1   1   11.9941   79.0317   6.79919
18   1   1   11.978   78.7529   6.49969
19   1   1   11.9218   78.5322   6.16681
20   1   1   13.9589   49.6303   -0.65142
21   1   1   12.2058   39.704   -0.013725
22   1   1   12.1512   38.5657   0.00406429
23   1   1   13.4634   49.9715   -0.851463
24   1   1   13.7011   49.837   -0.744765
25   1   1   14.1998   49.2541   -0.555548
26   1   1   11.9017   78.3046   5.89838
27   1   1   13.2218   50.1485   -0.941296
28   1   1   14.3547   48.7859   -0.469503
29   1   1   14.4267   48.4914   -0.413456
30   1   1   12.4109   39.9924   -0.0295642
31   1   1   12.9053   50.4209   -1.08961
32   1   1   14.3185   49.0249   -0.48822
33   1   1   14.4873   48.2898   -0.372715
34   1   1   14.5217   48.0707   -0.360759
35   1   1   13.8928   41.833   0.0180198
36   1   1   13.6365   41.5385   0.0156284
37   1   1   13.4944   41.3347   0.0135137
38   1   1   13.2397   41.0416   0.00280002
39   1   1   13.0356   40.7361   0.00256256
40   1   1   12.8626   40.5261   -0.0300824
41   1   1   12.7141   40.3688   -0.0201427
42   1   1   12.3558   38.2566   0.0184157
43   1   1   11.9214   78.1192   5.6865
44   1   1   12.1277   51.0898   -1.39853
45   1   1   12.2765   50.9727   -1.31979
46   1   1   12.4754   50.7464   -1.25657
47   1   1   12.6838   50.6174   -1.17526
48   1   1   14.6054   47.7552   -0.323845
49   1   1   14.6297   47.5012   -0.336558
50   1   1   14.7136   47.1948   -0.267312
51   1   1   14.7721   46.929   -0.270876
52   1   1   14.8434   46.6912   -0.216285
53   1   1   14.8559   46.4888   -0.201483
54   1   1   14.916   46.1384   -0.212995
55   1   1   14.9921   45.8506   -0.159057
56   1   1   15.0395   45.5736   -0.135083
57   1   1   15.096   45.2769   -0.123992
58   1   1   15.2287   44.8764   -0.122293
59   1   1   14.2799   42.3234   0.0323468
60   1   1   14.1075   42.0842   0.0362341
61   1   1   11.7025   51.4417   -1.59147
62   1   1   11.8949   51.2634   -1.48647
63   1   1   14.4818   42.5831   0.0038473
64   1   1   11.4687   51.6405   -1.72968
65   1   1   14.3558   49.4182   -0.521098
66   1   1   15.3394   44.5723   -0.0755636
67   1   1   14.7289   42.8405   0.00962005
68   1   1   12.5251   37.8817   0.01002
69   1   1   11.9311   77.8975   5.40805
70   1   1   11.0901   51.9369   -1.89903
71   1   1   11.3235   51.7874   -1.78333
72   1   1   14.9651   43.0984   -0.00897399
73   1   1   10.6403   52.4062   -2.14396
74   1   1   10.9097   52.1206   -1.98875
75   1   1   15.427   44.2599   -0.0691269
76   1   1   15.1795   43.3295   -0.0208435
77   1   1   10.4772   52.5577   -2.22904
78   1   1   14.4974   49.744   -0.511516
79   1   1   12.6826   37.723   0.0134561
80   1   1   11.8943   77.6854   5.11895
81   1   1   9.27939   53.7594   -2.99709
82   1   1   9.52274   53.5128   -2.81873
83   1   1   9.7075   53.302   -2.69728
84   1   1   9.83751   53.1592   -2.60018
85   1   1   10.0756   52.9426   -2.47065
86   1   1   10.2571   52.7409   -2.33451
87   1   1   15.5645   43.7674   -0.0342833
88   1   1   15.3836   43.5832   -0.0327151
89   1   1   9.06187   53.9726   -3.10678
90   1   1   12.7703   37.4207   0.00688631
91   1   1   8.3106   54.8975   -3.77064
92   1   1   8.48397   54.6312   -3.60336
93   1   1   8.68798   54.4405   -3.42555
94   1   1   8.86078   54.2061   -3.25438
95   1   1   14.6949   50.0237   -0.473723
96   1   1   13.0859   37.5036   0.042785
97   1   1   11.888   77.4889   4.85371
98   1   1   8.09203   55.135   -3.91673
99   1   1   15.7719   43.761   -0.0580552
100   1   1   12.6572   37.1423   0.0023584
101   1   1   7.90818   55.3711   -4.10203
102   1   1   12.5129   36.9004   -0.0499979
103   1   1   6.41083   57.0977   -5.38785
104   1   1   6.5901   56.9107   -5.22921
105   1   1   6.764   56.6762   -5.07811
106   1   1   6.88789   56.5177   -4.98542
107   1   1   7.09323   56.2992   -4.80484
108   1   1   7.20549   56.1836   -4.71224
109   1   1   7.35221   55.9965   -4.54924
110   1   1   7.54972   55.7672   -4.40842
111   1   1   7.68602   55.6385   -4.30379
112   1   1   14.9345   50.301   -0.443626
113   1   1   13.4575   37.5201   0.0609402
114   1   1   12.3168   36.544   -0.0814422
115   1   1   11.912   77.2935   4.60849
116   1   1   6.17245   57.4145   -5.59761
117   1   1   16.1555   43.714   -0.0239183
118   1   1   12.1672   36.1809   -0.113305
119   1   1   6.00312   57.6686   -5.7518
120   1   1   15.1267   50.5384   -0.423291
121   1   1   13.7153   37.5268   0.105905
122   1   1   12.1004   35.7887   -0.13904
123   1   1   11.9045   77.0532   4.33615
124   1   1   16.41   43.7023   -0.020843
125   1   1   11.9825   35.312   -0.128508
126   1   1   5.72768   57.9889   -5.95145
127   1   1   11.983   34.9334   -0.162148
128   1   1   15.2767   50.8052   -0.368867
129   1   1   14.0292   37.5605   0.117869
130   1   1   11.9746   34.5072   -0.16581
131   1   1   11.9203   76.8458   4.07473
132   1   1   5.50658   58.2492   -6.12298
133   1   1   16.7892   43.7001   0.00390679
134   1   1   12.0047   34.0274   -0.142482
135   1   1   12.068   33.6864   -0.1542
136   1   1   5.17707   58.55   -6.35248
137   1   1   15.5059   51.1363   -0.372887
138   1   1   14.3613   37.5817   0.109864
139   1   1   11.9304   76.6066   3.82113
140   1   1   17.1117   43.6831   0.048169
141   1   1   12.2504   33.2117   -0.141312
142   1   1   5.05455   58.7752   -6.53819
143   1   1   15.6931   51.3884   -0.342895
144   1   1   14.6741   37.6084   0.164367
145   1   1   11.9576   76.3806   3.5804
146   1   1   4.75125   59.1427   -6.68905
147   1   1   17.4756   43.7273   0.0448901
148   1   1   12.3868   32.8318   -0.158381
149   1   1   4.50292   59.4981   -6.99934
150   1   1   15.8687   51.6909   -0.34931
151   1   1   15.0366   37.6636   0.185892
152   1   1   12.0137   76.1381   3.30636
153   1   1   17.8504   43.7301   0.0555255
154   1   1   12.554   32.523   -0.168604
155   1   1   16.0932   51.9003   -0.348348
156   1   1   15.3735   37.7022   0.183946
157   1   1   12.0035   75.9405   3.07179
158   1   1   18.1246   43.7381   0.0754208
159   1   1   12.7319   32.1694   -0.190949
160   1   1   11.8548   26.8477   -3.71558
161   1   1   16.2741   52.2091   -0.302386
162   1   1   15.6837   37.724   0.177756
163   1   1   12.8542   31.9338   -0.246573
164   1   1   12.0601   75.702   2.79827
165   1   1   18.4726   43.7718   0.110366
166   1   1   13.088   31.6069   -0.264955
167   1   1   12.2739   26.7725   -3.36767
168   1   1   13.2707   31.3232   -0.261178
169   1   1   16.4838   52.5516   -0.242801
170   1   1   16.0761   37.756   0.204151
171   1   1   12.0381   75.4776   2.55476
172   1   1   18.8515   43.7984   0.117439
173   1   1   13.5229   31.0128   -0.306427
174   1   1   12.5725   26.8308   -3.11222
175   1   1   16.6766   52.7978   -0.218722
176   1   1   16.4013   37.8062   0.216439
177   1   1   12.0448   75.2629   2.29326
178   1   1   19.1234   43.8278   0.114068
179   1   1   13.7406   30.7512   -0.372524
180   1   1   12.7773   26.8051   -2.97743
181   1   1   16.8682   53.1447   -0.165753
182   1   1   16.717   37.836   0.221175
183   1   1   12.0501   75.0414   2.00481
184   1   1   19.4851   43.8987   0.131601
185   1   1   13.9193   30.5419   -0.3977
186   1   1   13.0791   26.8056   -2.78745
187   1   1   17.0451   53.44   -0.138966
188   1   1   17.0972   37.8943   0.268907
189   1   1   12.1028   74.817   1.76222
190   1   1   17.1859   53.6995   -0.0921631
191   1   1   19.8016   43.9695   0.130139
192   1   1   14.1528   30.3358   -0.437242
193   1   1   13.3879   26.7865   -2.62914
194   1   1   17.3309   54.0256   -0.0713661
195   1   1   17.4121   37.9271   0.292813
196   1   1   12.1083   74.6191   1.52732
197   1   1   12.124   74.4059   1.29004
198   1   1   12.1349   74.1902   1.04142
199   1   1   12.1576   74.013   0.796316
200   1   1   12.1511   73.83   0.591586
201   1   1   12.1822   73.5722   0.291924
202   1   1   12.8953   71.1846   -0.216542
203   1   1   13.0408   70.7575   -0.220129
204   1   1   20.1127   44.055   0.147812
205   1   1   14.4379   30.0815   -0.492606
206   1   1   13.6208   26.7424   -2.47031
207   1   1   12.2338   73.3665   0.12621
208   1   1   12.6991   71.7181   -0.193
209   1   1   12.826   71.3995   -0.202625
210   1   1   13.1909   70.4386   -0.215226
211   1   1   17.4996   54.3597   -0.0266924
212   1   1   12.4318   72.5185   -0.203094
213   1   1   12.5211   72.3187   -0.187252
214   1   1   12.6102   72.0249   -0.173195
215   1   1   13.3359   70.0663   -0.16314
216   1   1   17.8003   37.9397   0.311378
217   1   1   12.1908   73.2303   -0.175794
218   1   1   12.3688   72.7106   -0.162385
219   1   1   20.4436   44.1431   0.181444
220   1   1   14.7041   29.8134   -0.588039
221   1   1   13.8811   26.707   -2.36662
222   1   1   13.5142   69.573   -0.134949
223   1   1   17.6275   54.6623   -0.0299577
224   1   1   17.9808   37.9452   0.32894
225   1   1   12.1723   73.2728   -0.236052
226   1   1   13.6192   69.2815   -0.111051
227   1   1   17.7766   54.942   0.0276453
228   1   1   20.8118   44.244   0.148005
229   1   1   14.9616   29.558   -0.59594
230   1   1   14.2809   26.7637   -2.09499
231   1   1   13.742   68.9096   -0.101084
232   1   1   17.9442   55.294   0.00209789
233   1   1   18.3307   37.9968   0.344184
234   1   1   18.5919   83.8092   3.92647
235   1   1   12.0309   73.462   -0.537272
236   1   1   13.8956   68.5752   -0.0915668
237   1   1   18.0423   55.5775   -0.00251632
238   1   1   21.0644   44.3025   0.179706
239   1   1   15.2561   29.3323   -0.659799
240   1   1   14.915   27.316   -1.59334
241   1   1   14.8184   27.2113   -1.64242
242   1   1   14.5709   27.0288   -1.85209
243   1   1   14.4501   26.8474   -1.98511
244   1   1   17.7538   60.3345   0.148087
245   1   1   17.9147   60.0657   0.17883
246   1   1   18.0217   59.8447   0.15168
247   1   1   18.1495   59.6342   0.117134
248   1   1   18.3365   59.3617   0.121502
249   1   1   18.2831   56.2812   0.03161
250   1   1   18.1535   55.905   0.0269554
251   1   1   15.1   27.4828   -1.41924
252   1   1   14.3201   26.4649   -2.14528
253   1   1   14.0335   68.2907   -0.105592
254   1   1   17.0803   61.4624   0.184359
255   1   1   17.2488   61.1771   0.195912
256   1   1   17.4572   60.8467   0.204065
257   1   1   17.6045   60.5833   0.182698
258   1   1   18.4498   59.074   0.121884
259   1   1   18.5169   58.955   0.114118
260   1   1   18.3982   56.5814   0.0526307
261   1   1   18.5434   37.9968   0.366464
262   1   1   15.3953   27.9828   -1.11322
263   1   1   18.8127   83.3936   3.91392
264   1   1   11.9194   73.6077   -0.826532
265   1   1   14.1513   67.9941   -0.118316
266   1   1   16.7843   62.0785   0.182879
267   1   1   16.9429   61.7381   0.173015
268   1   1   18.6777   58.6052   0.108394
269   1   1   18.4791   56.8893   0.0654283
270   1   1   21.4254   44.4059   0.176365
271   1   1   18.8601   38.1422   0.419304
272   1   1   18.786   37.9593   0.35107
273   1   1   15.5138   28.9785   -0.703687
274   1   1   14.3904   26.0904   -2.21952
275   1   1   14.2521   67.717   -0.103099
276   1   1   16.6576   62.3652   0.17793
277   1   1   18.7331   57.7002   0.113919
278   1   1   18.6909   57.4457   0.0815178
279   1   1   18.5882   57.1599   0.090267
280   1   1   15.4871   28.2422   -0.988448
281   1   1   16.5318   62.656   0.147373
282   1   1   18.8792   58.2267   0.10725
283   1   1   18.7802   57.8948   0.0961269
284   1   1   19.1514   38.4506   0.461459
285   1   1   19.2681   37.6356   0.315708
286   1   1   14.4883   25.6818   -2.29448
287   1   1   18.9406   83.0559   3.89183
288   1   1   11.7959   73.7487   -1.10524
289   1   1   14.4077   67.3873   -0.100979
290   1   1   16.4037   62.9833   0.151649
291   1   1   21.7493   44.5027   0.15706
292   1   1   15.6395   28.8706   -0.733983
293   1   1   15.6162   28.538   -0.840141
294   1   1   14.571   25.2948   -2.38479
295   1   1   14.5509   67.108   -0.0959482
296   1   1   19.4792   38.761   0.556906
297   1   1   19.5146   37.4493   0.291702
298   1   1   15.604   27.8711   -1.04075
299   1   1   16.2403   63.2699   0.157872
300   1   1   19.0095   58.3766   0.104117
301   1   1   15.9452   29.1824   -0.568034
302   1   1   14.7237   24.8131   -2.40672
303   1   1   19.0475   82.8088   3.80635
304   1   1   11.7051   73.9559   -1.34792
305   1   1   14.6593   66.8413   -0.0950321
306   1   1   22.0742   44.6385   0.156736
307   1   1   19.8607   37.2171   0.254214
308   1   1   14.7483   66.5786   -0.0774499
309   1   1   14.8949   66.3232   -0.0683278
310   1   1   16.1183   63.5498   0.126098
311   1   1   19.7716   39.0042   0.59553
312   1   1   15.7134   27.6322   -1.04285
313   1   1   14.9549   66.1039   -0.0600048
314   1   1   15.0865   65.8737   -0.0499709
315   1   1   19.3624   58.4929   0.114482
316   1   1   22.3613   44.7126   0.177361
317   1   1   16.2605   29.4435   -0.438993
318   1   1   14.8045   24.3903   -2.48617
319   1   1   19.1738   82.4933   3.76113
320   1   1   11.5378   74.1185   -1.68154
321   1   1   15.1997   65.6393   -0.0355531
322   1   1   15.5661   64.7661   0.0160485
323   1   1   15.705   64.4375   0.0230351
324   1   1   15.8359   64.1593   0.0577648
325   1   1   15.968   63.8367   0.100813
326   1   1   20.1563   37.0424   0.229326
327   1   1   15.3165   65.3227   -0.0162659
328   1   1   15.4224   65.0618   -0.00802984
329   1   1   22.7696   44.8385   0.177042
330   1   1   20.1248   39.3248   0.601442
331   1   1   16.4632   29.5898   -0.403517
332   1   1   16.0323   27.4456   -0.944137
333   1   1   11.3846   74.3963   -2.03241
334   1   1   19.7523   58.5434   0.112708
335   1   1   16.7535   29.7148   -0.302284
336   1   1   14.9641   23.9828   -2.5499
337   1   1   19.3075   82.1796   3.68254
338   1   1   23.2686   44.9946   0.153697
339   1   1   20.4372   36.9071   0.189657
340   1   1   16.9688   29.8795   -0.199944
341   1   1   20.4338   39.5408   0.639162
342   1   1   16.336   27.1545   -0.888795
343   1   1   20.0159   58.6512   0.105313
344   1   1   15.0764   23.5652   -2.57324
345   1   1   19.3867   81.8868   3.66418
346   1   1   23.6397   45.1671   0.154093
347   1   1   20.7347   36.7403   0.184114
348   1   1   17.3585   30.1301   -0.0724364
349   1   1   20.8133   39.7242   0.661809
350   1   1   16.5572   26.9907   -0.865474
351   1   1   15.2168   23.1938   -2.63275
352   1   1   20.3539   58.8158   0.11827
353   1   1   15.4148   22.7776   -2.63792
354   1   1   19.5383   81.5921   3.5578
355   1   1   23.9969   45.314   0.0952943
356   1   1   21.0712   36.6196   0.213941
357   1   1   17.6357   30.2789   0.00935303
358   1   1   21.2365   39.9789   0.68383
359   1   1   16.8267   26.7426   -0.818349
360   1   1   15.5509   22.436   -2.67865
361   1   1   20.664   58.9055   0.104661
362   1   1   24.4372   45.5433   0.0814514
363   1   1   19.697   81.2415   3.53509
364   1   1   21.3556   36.4562   0.197428
365   1   1   17.9135   30.4824   0.0691686
366   1   1   15.6843   22.052   -2.75677
367   1   1   24.767   45.6654   0.0759801
368   1   1   21.613   40.148   0.728923
369   1   1   17.0519   26.5598   -0.811672
370   1   1   20.9264   59.0333   0.103747
371   1   1   25.0734   45.8231   0.0784014
372   1   1   15.8517   21.6658   -2.77583
373   1   1   19.8107   80.9805   3.45351
374   1   1   21.5965   36.3441   0.132141
375   1   1   18.2684   30.6599   0.190648
376   1   1   21.9626   40.3019   0.785764
377   1   1   17.2978   26.3262   -0.776134
378   1   1   16.0259   21.2246   -2.85841
379   1   1   21.2836   59.1274   0.0979687
380   1   1   25.4315   46.0162   0.0509905
381   1   1   19.9487   80.6647   3.42212
382   1   1   21.9466   36.1442   0.131265
383   1   1   18.5498   30.8329   0.322614
384   1   1   22.2954   40.3944   0.835411
385   1   1   17.5479   26.1513   -0.740422
386   1   1   16.1024   20.9512   -2.91977
387   1   1   21.6246   59.2693   0.101256
388   1   1   25.6955   46.1274   0.0224819
389   1   1   20.1039   80.3788   3.33468
390   1   1   22.2673   36.0347   0.146159
391   1   1   18.7451   30.9503   0.392605
392   1   1   22.6678   40.4715   0.892592
393   1   1   17.8584   25.9522   -0.690491
394   1   1   16.3007   20.5182   -2.95596
395   1   1   21.8172   59.373   0.0851292
396   1   1   25.9763   46.257   0.0578314
397   1   1   20.2605   80.0424   3.32264
398   1   1   22.5448   35.9311   0.128312
399   1   1   19.065   31.142   0.553015
400   1   1   16.5045   20.1354   -2.97439
401   1   1   23.1018   40.5649   1.00973
402   1   1   18.0972   25.7398   -0.611421
403   1   1   22.2167   59.5709   0.0600971
404   1   1   26.2586   46.4353   0.0378502
405   1   1   16.5902   19.9088   -2.98274
406   1   1   20.3914   79.7317   3.25267
407   1   1   22.8458   35.78   0.0918023
408   1   1   19.3236   31.2865   0.619022
409   1   1   23.406   40.6255   1.04957
410   1   1   18.3305   25.5363   -0.555032
411   1   1   22.565   59.7864   0.114223
412   1   1   26.6384   46.6205   0.0230645
413   1   1   16.8318   19.3854   -3.08853
414   1   1   20.5097   79.4291   3.19354
415   1   1   23.1353   35.6839   0.0718861
416   1   1   19.5702   31.4643   0.71435
417   1   1   23.8024   40.653   1.12275
418   1   1   18.6424   25.3606   -0.468378
419   1   1   22.8956   59.9701   0.0874635
420   1   1   26.8465   46.6301   -0.00296825
421   1   1   16.9729   19.064   -3.11576
422   1   1   20.644   79.1837   3.11621
423   1   1   26.8958   47.0511   0.036799
424   1   1   23.4759   35.572   0.0635783
425   1   1   19.8445   31.6381   0.826225
426   1   1   27.0839   48.2005   0.155079
427   1   1   27.0126   47.8442   0.137011
428   1   1   26.972   47.4952   0.0925373
429   1   1   26.9339   47.2869   0.071448
430   1   1   24.0923   40.6749   1.18558
431   1   1   19.0161   25.1164   -0.384304
432   1   1   22.1299   75.3082   2.21452
433   1   1   22.2594   74.9887   2.1343
434   1   1   22.3361   74.8404   2.10131
435   1   1   22.4208   74.5876   2.03981
436   1   1   22.5083   74.3272   2.00987
437   1   1   22.6283   74.0584   1.94586
438   1   1   22.7674   73.813   1.87063
439   1   1   23.2719   60.1941   0.128168
440   1   1   27.1594   48.4901   0.196099
441   1   1   27.1733   46.3898   -0.0960909
442   1   1   17.2403   18.6374   -3.13099
443   1   1   20.7004   78.9014   3.06546
444   1   1   21.9232   75.7877   2.35299
445   1   1   22.0134   75.5766   2.30295
446   1   1   22.8691   73.5641   1.822
447   1   1   23.0039   73.3292   1.75399
448   1   1   27.2272   48.802   0.207472
449   1   1   23.7429   35.499   0.0155639
450   1   1   20.1466   31.772   0.975977
451   1   1   21.8069   76.0932   2.41317
452   1   1   23.0813   73.1116   1.71801
453   1   1   23.2238   72.8086   1.65037
454   1   1   27.3286   49.1489   0.269609
455   1   1   24.4676   40.7469   1.25379
456   1   1   19.2816   24.955   -0.277746
457   1   1   20.8393   78.6267   3.00354
458   1   1   21.3926   77.1085   2.65722
459   1   1   21.5387   76.7922   2.59038
460   1   1   21.6709   76.4526   2.50757
461   1   1   23.3525   72.6195   1.6009
462   1   1   23.4374   72.3597   1.53926
463   1   1   23.5643   72.0814   1.49664
464   1   1   23.6769   71.8558   1.46873
465   1   1   24.1742   70.9368   1.29033
466   1   1   24.3475   70.6732   1.23727
467   1   1   24.478   70.4314   1.17416
468   1   1   24.6035   70.2216   1.1707
469   1   1   24.6794   69.9812   1.12417
470   1   1   24.8741   69.6902   1.04216
471   1   1   23.6057   60.4894   0.0924968
472   1   1   27.4137   46.2602   -0.125038
473   1   1   17.4322   18.316   -3.16375
474   1   1   20.9382   78.3807   2.9222
475   1   1   21.0134   78.1997   2.89801
476   1   1   21.1109   77.9322   2.86021
477   1   1   21.2373   77.6023   2.77908
478   1   1   21.2943   77.378   2.70654
479   1   1   23.8278   71.5957   1.40695
480   1   1   23.9151   71.4159   1.39085
481   1   1   24.053   71.1393   1.33249
482   1   1   25.0052   69.4334   1.03237
483   1   1   25.1264   69.1896   0.961565
484   1   1   27.5149   49.5344   0.292548
485   1   1   24.0634   35.3429   0.00422503
486   1   1   20.3873   31.9576   1.08855
487   1   1   19.6355   24.7063   -0.197329
488   1   1   25.3545   68.8495   0.893454
489   1   1   24.8009   40.7895   1.32107
490   1   1   25.5267   68.577   0.838278
491   1   1   23.936   60.7499   0.110358
492   1   1   27.6574   46.0659   -0.197654
493   1   1   19.9084   24.5523   -0.110323
494   1   1   17.5882   18.0349   -3.19793
495   1   1   27.6291   49.8558   0.339734
496   1   1   24.3474   35.2438   -0.0162678
497   1   1   20.6808   32.1184   1.16869
498   1   1   20.1739   24.3774   -0.0347722
499   1   1   20.4921   24.265   0.0257661
500   1   1   25.7218   68.2418   0.762248
501   1   1   25.0443   40.7869   1.36805
502   1   1   20.7296   24.0985   0.0556776
503   1   1   24.2444   61.076   0.0652365
504   1   1   27.976   45.8727   -0.240367
505   1   1   21.0272   23.9554   0.126891
506   1   1   17.8128   17.6922   -3.15087
507   1   1   27.7822   50.2457   0.352512
508   1   1   24.6638   35.1755   -0.0115555
509   1   1   20.9705   32.3084   1.31802
510   1   1   21.4198   23.7561   0.221257
511   1   1   25.9873   67.8778   0.687108
512   1   1   25.3361   40.8566   1.39506
513   1   1   24.5361   61.4228   -0.00650207
514   1   1   28.2644   45.7101   -0.29913
515   1   1   21.704   23.625   0.287731
516   1   1   17.9748   17.4373   -3.18332
517   1   1   26.2463   67.5127   0.585805
518   1   1   27.9628   50.5579   0.389344
519   1   1   24.9944   35.0916   -0.0347694
520   1   1   21.1825   32.4508   1.4098
521   1   1   26.4115   67.2446   0.485343
522   1   1   25.7297   41.0235   1.43206
523   1   1   25.6967   40.8605   1.45484
524   1   1   24.8174   61.7611   0.0394554
525   1   1   28.5331   45.5823   -0.354493
526   1   1   22.154   23.4206   0.381204
527   1   1   18.1877   17.1471   -3.22474
528   1   1   26.6205   66.9608   0.390739
529   1   1   28.0897   50.8428   0.425407
530   1   1   26.0436   41.3139   1.45555
531   1   1   25.2332   35.0231   -0.0381473
532   1   1   21.4428   32.5867   1.49598
533   1   1   25.0666   62.1073   0.0254446
534   1   1   26.2106   40.642   1.56296
535   1   1   26.806   66.733   0.280415
536   1   1   28.8447   45.3975   -0.432018
537   1   1   26.3166   41.6355   1.44351
538   1   1   22.5116   23.31   0.443318
539   1   1   18.3671   16.8537   -3.22273
540   1   1   25.5747   62.7473   -0.00269818
541   1   1   25.2972   62.4369   -0.0362223
542   1   1   28.2445   51.0796   0.437477
543   1   1   25.5674   34.9039   -0.0383648
544   1   1   21.7404   32.7244   1.57602
545   1   1   25.717   63.023   0.0162048
546   1   1   26.5408   42.0201   1.39358
547   1   1   26.4445   40.4595   1.62922
548   1   1   26.9831   66.5073   0.187256
549   1   1   25.9178   63.2962   -0.0660086
550   1   1   29.1723   45.2378   -0.464947
551   1   1   22.8607   23.1497   0.515978
552   1   1   18.5534   16.5323   -3.27807
553   1   1   26.2845   63.8471   -0.0713499
554   1   1   26.0907   63.5638   -0.0757582
555   1   1   28.4033   51.4268   0.436008
556   1   1   26.8988   42.3271   1.41106
557   1   1   25.9161   34.7702   -0.0291009
558   1   1   21.7757   33.2542   1.75773
559   1   1   22.0404   32.7418   1.66106
560   1   1   26.45   64.1213   -0.0824012
561   1   1   26.7756   40.2218   1.72483
562   1   1   22.3257   32.5625   1.71071
563   1   1   27.1677   66.2112   0.0552474
564   1   1   26.6528   64.4465   -0.107157
565   1   1   29.4444   45.103   -0.492195
566   1   1   22.6726   32.4694   1.73269
567   1   1   23.2577   23.0289   0.590545
568   1   1   18.7093   16.3306   -3.30256
569   1   1   26.7955   64.7234   -0.073072
570   1   1   28.554   51.7189   0.443814
571   1   1   27.2034   42.671   1.39083
572   1   1   26.2307   34.625   -0.0519107
573   1   1   21.7564   33.6099   1.80666
574   1   1   22.9831   32.3445   1.74459
575   1   1   27.1139   65.3003   -0.0669962
576   1   1   26.9372   65.0041   -0.0683836
577   1   1   27.1058   40.0524   1.81437
578   1   1   23.3204   32.2246   1.79425
579   1   1   27.3542   65.9162   -0.0677069
580   1   1   27.2213   65.6136   -0.0534091
581   1   1   29.7725   44.9866   -0.565332
582   1   1   23.5968   22.878   0.633005
583   1   1   18.8667   16.037   -3.33316
584   1   1   28.6791   51.9947   0.447209
585   1   1   27.4798   42.919   1.33121
586   1   1   26.5165   34.5504   -0.0360367
587   1   1   21.7602   33.9309   1.90228
588   1   1   23.6152   32.0959   1.77664
589   1   1   27.3576   39.9121   1.85788
590   1   1   27.7232   66.0282   -0.204607
591   1   1   30.0679   44.8586   -0.606838
592   1   1   23.8788   22.7581   0.700952
593   1   1   19.008   15.7881   -3.32625
594   1   1   28.8756   52.2831   0.473945
595   1   1   27.784   43.1871   1.36206
596   1   1   26.8661   34.4236   -0.0327397
597   1   1   21.7603   34.2987   2.01426
598   1   1   23.9205   31.963   1.84796
599   1   1   27.6132   39.7803   1.95251
600   1   1   28.0474   66.093   -0.306399
601   1   1   30.3977   44.7258   -0.621483
602   1   1   24.1427   22.6417   0.75083
603   1   1   19.2143   15.4938   -3.31431
604   1   1   29.0411   52.5989   0.460316
605   1   1   28.0549   43.3925   1.35295
606   1   1   27.1848   34.2779   -0.0405375
607   1   1   21.7743   34.5583   2.1153
608   1   1   24.2123   31.8395   1.85949
609   1   1   27.9322   39.6232   2.02757
610   1   1   28.3177   66.1649   -0.380739
611   1   1   30.7278   44.6424   -0.661085
612   1   1   24.4923   22.5234   0.783139
613   1   1   19.3927   15.1639   -3.36478
614   1   1   29.1911   52.8806   0.485466
615   1   1   28.2744   43.5759   1.34911
616   1   1   27.4619   34.1636   0.00413346
617   1   1   21.7739   34.8778   2.21334
618   1   1   24.5319   31.7553   1.89728
619   1   1   28.204   39.4775   2.1209
620   1   1   28.6704   66.281   -0.475029
621   1   1   31.032   44.5468   -0.700092
622   1   1   24.7676   22.3869   0.854823
623   1   1   19.5629   14.8122   -3.37424
624   1   1   29.3264   53.0963   0.483529
625   1   1   28.5708   43.7587   1.35097
626   1   1   27.8049   34.0642   0.0316364
627   1   1   21.7392   35.2664   2.3068
628   1   1   24.8717   31.64   1.93739
629   1   1   31.3888   77.9035   -4.16212
630   1   1   28.5148   39.3234   2.20078
631   1   1   31.6634   77.6699   -3.81521
632   1   1   31.8367   77.4674   -3.65925
633   1   1   32.0431   77.3407   -3.49136
634   1   1   32.2146   77.1425   -3.28812
635   1   1   32.3748   76.9905   -3.09207
636   1   1   32.5648   76.8103   -2.92622
637   1   1   32.7984   76.6162   -2.6931
638   1   1   28.9556   66.3737   -0.564753
639   1   1   31.3559   44.4241   -0.735112
640   1   1   25.104   22.2794   0.90897
641   1   1   19.8077   14.4253   -3.4246
642   1   1   32.9763   76.4121   -2.48579
643   1   1   29.4979   53.4579   0.483158
644   1   1   28.8467   43.936   1.30921
645   1   1   28.1248   33.9267   0.0924979
646   1   1   21.7394   35.5594   2.41534
647   1   1   25.1571   31.5381   1.93585
648   1   1   28.8141   39.1897   2.26151
649   1   1   33.1436   76.2261   -2.29602
650   1   1   33.2796   76.0134   -2.09786
651   1   1   29.2222   66.4526   -0.646949
652   1   1   31.6517   44.4037   -0.788443
653   1   1   25.3955   22.1752   0.975728
654   1   1   20.0414   14.0765   -3.42344
655   1   1   33.4645   75.8321   -1.91762
656   1   1   29.4573   53.826   0.604202
657   1   1   29.9021   53.5895   0.341116
658   1   1   29.1382   44.1512   1.29494
659   1   1   28.4129   33.853   0.102517
660   1   1   21.7695   35.8037   2.47781
661   1   1   25.4773   31.404   1.97043
662   1   1   33.6292   75.6217   -1.68091
663   1   1   29.0841   39.0165   2.3597
664   1   1   33.7885   75.3706   -1.4806
665   1   1   33.9532   75.1917   -1.32105
666   1   1   29.5504   66.5848   -0.752333
667   1   1   30.2988   53.778   0.243455
668   1   1   32.0065   44.3254   -0.81452
669   1   1   25.7875   22.0497   1.05053
670   1   1   20.1859   13.7642   -3.42161
671   1   1   34.1315   74.9595   -1.11279
672   1   1   29.8315   66.7032   -0.816758
673   1   1   29.4122   54.2473   0.709231
674   1   1   29.4236   44.288   1.28747
675   1   1   28.6997   33.8161   0.147513
676   1   1   21.8019   36.1877   2.58608
677   1   1   25.7881   31.285   1.96628
678   1   1   34.2988   74.7035   -0.920038
679   1   1   30.1805   66.8449   -0.900506
680   1   1   30.6404   53.8453   0.0989879
681   1   1   29.3527   38.8918   2.43032
682   1   1   29.3476   54.605   0.813699
683   1   1   32.4201   44.2472   -0.832295
684   1   1   26.0387   21.9515   1.10876
685   1   1   20.4868   13.3457   -3.46694
686   1   1   34.4874   74.4942   -0.720144
687   1   1   30.4645   66.9879   -0.979563
688   1   1   29.7211   44.4311   1.28753
689   1   1   29.0691   33.6598   0.186432
690   1   1   21.7975   36.536   2.70079
691   1   1   26.1218   31.1639   1.99061
692   1   1   30.703   67.1037   -1.0226
693   1   1   29.2754   54.9822   0.973295
694   1   1   30.994   53.9919   0.00660683
695   1   1   29.6205   38.7285   2.51765
696   1   1   33.3702   68.8025   -1.53586
697   1   1   33.0954   68.5935   -1.51106